<?xml version="1.0"?>
<VTKFile type="PolyData" version="0.1" byte_order="LittleEndian" header_type="UInt32" compressor="vtkZLibDataCompressor">
  <PolyData>
    <Piece NumberOfPoints="1479" NumberOfVerts="1479" NumberOfLines="0" NumberOfStrips="0" NumberOfPolys="0">
      <PointData>
      </PointData>
      <CellData Normals="Normals_">
        <DataArray type="Float64" Name="Normals_" NumberOfComponents="3" format="ascii" RangeMin="0.9999999999999998" RangeMax="1.0000000000000002">
          -0.016044872492052432 -0.023556194037428778 -0.99959375137562 0.015199601319462193 -0.025708224371370478 -0.9995539301705539
          -0.005992310765569447 0.014084835642708767 -0.9998828479460016 -0.0029002743493994065 -0.013114622480578951 -0.9999097934743364
          0.002359521334864791 -0.01056942150353758 -0.9999413582746495 0.00617286570125637 -0.05545059022031139 -0.9984423507510354
          0.009652325300561966 0.009369768035000859 -0.9999095159379484 -0.013585253709063827 -0.0030208418568325023 -0.9999031530083983
          0.0013267220453658476 0.014038267706701527 -0.9999005784818855 0.010461679238050529 0.0042835133988943395 -0.9999361003486581
          0.000763934195237873 0.0008748638229811829 -0.9999993255086909 -0.014808615385390423 -0.007690156160556603 -0.9998607735122895
          -0.004594513874015068 -0.03336345926765338 -0.9994327241130125 0.007011284172723277 -0.0655859197913471 -0.9978222933064645
          0.012945064975468656 -0.025265399630373907 -0.9995969612170189 -0.0033403384461790377 0.026046641480445835 -0.9996551478418215
          -0.0011191027397247752 0.02399695893303953 -0.9997114051420161 -0.002951639736974989 0.028844119874031193 -0.9995795639025218
          -0.000750444906241978 0.07036483549845275 -0.9975210407594008 0.0019573355811732173 0.022922430869683603 -0.9997353304752449
          0.006995407051308126 -0.005663761492811206 -0.9999594922225294 -0.003755715670392024 -0.009400969430962032 -0.9999487568738518
          -0.001944217095547459 0.006830560485264678 -0.9999747814136828 -0.0013138684106867918 0.002252622369093652 -0.9999965997153498
          0.003508117662834348 -0.02297215663987636 -0.9997299501014144 -0.0025843981837288337 0.020744067202620474 -0.9997814784051169
          -0.0001867563937660459 -0.0006946597850598822 -0.9999997412848828 -0.0007779474510011936 -0.0002852462351773106 -0.9999996567161155
          -0.004430219426863802 -0.024344334673077592 -0.9996938163883755 0.009368514050527988 -0.0006357753953808767 -0.9999559123952074
          -0.004350167284450987 0.021910174689815345 -0.9997504790144685 0.00018883194151409266 -0.00028069163946201135 -0.999999942777349
          -0.0038270872854618437 0.019750856293695374 -0.9997976080580385 0.007507678588648762 0.002968852827754928 -0.9999674098064881
          -0.0035829227946818265 -0.015370504412356063 -0.9998754473725 -0.005299621969309869 0.02042685972637703 -0.9997773039075759
          0.0037448718338313368 0.023428198002749086 -0.9997185081178062 0.005112711056839352 -0.011857729140682935 -0.999916623746838
          0.00025358882614264357 0.029819491450458004 -0.9995552679178593 -0.01665768324094166 0.023832392809489088 -0.9995771799326046
          0.005622181319320283 0.07114446682895449 -0.997450177160161 0.01123632201783278 0.0068091736861449585 -0.9999136863855917
          -0.0021190347149490783 -0.030255499161886926 -0.9995399514088178 -0.0013687343963258976 -0.010953149502616916 -0.9999390756851768
          -0.0008356744612461419 -0.0018057852914774822 -0.9999980203918785 -0.003217774552014002 -0.010407493720902059 -0.9999406632402653
          0.006245777070775637 0.0045287818531491 -0.9999702397590184 -0.0031691318316459166 0.012095983409388224 -0.9999218188382496
          -0.0012506483251371295 0.0008668877832479587 -0.9999988421914988 0.00016776604228366636 -0.004402303305184106 -0.9999902957429957
          -0.0005513315532978967 0.03556191150395133 -0.999367323101823 0.0010936911801044966 -0.013011633109865596 -0.9999147469876705
          -0.002760798386082393 0.02271171682469883 -0.9997382436973921 0.002373865163718621 0.046273023943662304 -0.9989260092816151
          0.005269469475881365 0.04237921766748552 -0.9990877011560769 0.00040363793453004464 0.02910043821670168 -0.9995764110722171
          -0.0037482248450639065 -0.006598199358074952 -0.999971206873349 0.004270315781451538 -0.025826321004734372 -0.9996573240598436
          -0.003166988164132263 -0.034197551041402506 -0.9994100748385213 -0.0017369099726306677 -0.009694422564718707 -0.9999514994812917
          -0.001281108737497615 -0.004427272380934316 -0.9999893789534305 0.0024800254669513685 -0.02742170650612819 -0.9996208778761951
          -0.004261404474854911 0.02017499021883623 -0.9997873824976847 0.0035709874047088032 0.018820920698767327 -0.9998164936592145
          -0.004718900212358 -0.032110478143658854 -0.9994731858204958 -0.007708992758976929 -0.015788804347592552 -0.9998456306290064
          0.012551510751020338 -0.001454014565934033 -0.999920169523302 -0.016709942112221612 -0.04195863273975887 -0.9989796048835112
          0.019683229272710424 -0.06758239007947396 -0.9975195191255877 -0.0017809692803341076 -0.04494165229533225 -0.9989880259729782
          -0.0017769325582521068 -0.01895401781422088 -0.9998187774388825 -0.0005341877017075011 -0.0005365708007244397 -0.9999997133675964
          -0.00021869690830243836 0.010428896654772188 -0.9999455936630884 0.000789881434295516 0.010794434908713586 -0.9999414264157281
          0.00011351802041332794 0.000921180468687877 -0.9999995692700087 0.00042164468227843274 -0.0018074063171845279 -0.9999982777476002
          -0.001326980566425958 -0.010254948424032297 -0.9999465361485065 -0.00452128125418554 -0.002235829682159745 -0.9999872794598202
          -0.005815591437822389 0.03095751597241482 -0.9995037824345869 0.0032741589518345696 0.00825220234315 -0.9999605897432388
          -0.00006529105896695583 -0.04361722967268494 -0.9990483136529272 -0.005882452003897442 0.013445987441199425 -0.9998922952899242
          -0.006499138685417445 0.06789302202425238 -0.9976714382785357 0.01296290291776851 0.04354574185677283 -0.9989673325560189
          0.008914626358059887 0.08042286746298435 -0.9967209698937448 -0.01859267056071926 -0.002433130836571763 -0.9998241807816776
          0.0027997290658944886 -0.02955726720914497 -0.9995591675695265 0.009063884168043703 -0.08673061585976943 -0.9961905672492455
          0.007287880965354567 -0.011867264703048584 -0.9999030227074537 -0.002972619718772551 -0.006133284903780483 -0.9999767729043992
          -0.004578727025085775 0.00023169210528542773 -0.9999894907335767 0.008980571585497702 -0.03129056415062124 -0.9994699845063549
          -0.015474533442689424 -0.03883409395511108 -0.9991258439062702 0.011284712685218001 -0.057207318974622966 -0.9982985414771213
          0.004469465077524776 -0.008246031239192942 -0.9999560124579095 -0.016118338262966665 -0.0527131513500271 -0.998479605623665
          0.0036561019995226974 -0.09936597640236802 -0.9950442380375724 -0.0014903591518730776 -0.06275681994107159 -0.9980277352761707
          0.0006437121856571155 -0.03406641240231536 -0.9994193640212587 -0.003468526905806762 0.9999581531608231 -0.00846529670474729
          -0.0018523073088404867 0.8384894685132276 0.5449146540055961 -0.0031691497644076427 -0.3744733351657287 0.9272322674171917
          0.004356727553063933 -0.02097850958271 0.9997704341801253 0.006066235591121325 -0.49255926765921043 0.8702577598785174
          -0.018518711299649934 -0.5357421747129849 -0.8441785235159691 0.00891820441483974 -0.5270492149285971 -0.8497879680680144
          -0.0025114393845953637 -0.9998014066425127 -0.019769672426992374 -0.0005777385050980188 -0.8537539730081007 -0.5206763099960503
          0.007922556685306859 -0.9576458932366709 -0.287839497398301 0.0005097467674822283 -0.9539797890747268 -0.2998704756977133
          -0.0111164916681421 -0.7180043812413229 -0.6959498057555997 -0.0008908174633347036 -0.9265637021773734 -0.3761368265028126
          0.015826836591603603 -0.4621540492880825 -0.8866584156089262 -0.0019069660215847732 -0.4839809989140022 -0.8750764287596812
          0.007128646821094659 -0.8364761548025071 -0.5479569552814457 -0.01113932305394314 0.8719137309677556 0.48953279893362434
          -0.00029498204641581927 0.5735403196391581 0.8191772791855281 -0.014985466795606297 0.4477005621450563 0.8940579636913472
          -0.015134282572782574 0.877672506595271 0.4790218415247693 0.0011820547671332945 -0.7441150809601439 0.6680504090517466
          0.006014813161961747 -0.4255919336131788 0.9048952028086028 -0.0012516240988472663 -0.8140307710565735 0.5808204001325673
          -0.0015400956989085725 -0.33919831843269654 0.9407136274540032 -0.0024932230906298965 0.3761419899833161 -0.9265586798525021
          0.013631960885807738 -0.9797856777957697 0.1995850576288011 0.0038412413616954275 -0.9464441410030539 -0.3228447503457237
          0.003661948487107558 0.40020290705813094 -0.9164192399308837 0.0002908242775768772 0.7048768124316405 -0.7093296798509489
          -0.003385366528506667 0.3988710643367942 -0.9170007706257943 0.0006846578158730815 0.7034500005220411 -0.710744418204755
          0.0010170514692273507 -0.4958680358449113 -0.8683972919313019 0.0024373232250210594 -0.4200493411404409 -0.9074979947432271
          -0.004609514163093657 -0.462683132204132 -0.8865117436069044 0.00508975024007757 -0.4907798466260783 -0.8712687510683352
          0.0037833966079730804 -0.42199556030330976 -0.9065900026993473 0.004464677098364679 -0.5300217131926463 -0.8479723168846607
          0.0055486620932836215 0.2442249862166008 0.9697027216917955 0.004827781492970336 0.4315192019276824 0.902090832950625
          0.011934876945105257 -0.10074696866358585 0.9948404932537696 0.013835104863362837 0.743779853588247 -0.6682814671002523
          -0.0007505586453552545 0.769914473783684 -0.6381466443695465 0.002825542075078488 0.410474398875494 -0.9118677448949402
          -0.006884929391900531 0.8849177276580482 -0.4656964816527873 0.014397877330416193 0.9089198407529134 -0.4167222386843267
          -0.007404881678452624 0.6797586455435723 -0.7333984943644867 -0.009639822968566287 -0.40202428429500114 -0.9155782591620591
          -0.003301582838868797 -0.42502411124738754 -0.9051760074201737 0.0019819727368814936 -0.3933641076731153 -0.9193806342199101
          0.0016478065038120814 -0.7685783347363168 -0.6397535682649031 -0.0077197865354824815 -0.7421364381686153 -0.6702043807960729
          -0.00869140091060465 -0.3897265567990045 -0.920889608191885 0.01230554449521501 0.9192583418768189 0.39346241810947824
          -0.022482058489928965 0.8892622436086048 0.4568448523713992 -0.005412300048603895 0.6818990679367307 0.7314262561292163
          0.00732647520221638 0.028613793080244497 0.9995636916208354 -0.005712721855272252 -0.31492689320998557 0.9490987391953013
          0.006078791130297602 -0.31356378060999196 0.9495476837884251 0.012710597742128958 0.41894700776277527 -0.9079217176561286
          0.006963428751715354 0.4824384209906805 -0.8759022095028867 -0.005100970487148935 -0.8084953289165396 -0.5884804866945255
          0.0014735475301945738 -0.9457139199417474 -0.3249969388872615 0.0028013588827212484 -0.512568502454994 -0.8586417662095496
          0.002382974423615037 0.9084052707646698 0.4180839454940397 0.008721981865118604 0.8619915752190562 0.5068475621759608
          0.014401594357731109 0.9977664495667318 0.06522810896349639 0.0038467737460880255 -0.9967808268514162 -0.08008236730487751
          -0.0012668450160808358 -0.9319587881550122 -0.3625620116398661 -0.0017923605845572448 -0.823051306585935 -0.5679642014869601
          -0.0006502185494573352 -0.9998482780620016 0.017406839813373095 0.0076400709736152315 0.9327608154282849 0.3604148866474289
          -0.004259311551088227 0.6093192354355301 0.7929135688039218 -0.0071574518739626995 0.9087733919369052 0.41722858601750185
          0.004714143443289723 0.7045826371563955 0.7096062882115232 -0.01177469526849606 0.43303273067311127 -0.9013012874267531
          0.003601260138682112 0.401505065339244 -0.9158497220790881 -0.0022388316883799175 -0.6616792060028736 0.7497837127972826
          -0.0022719396376472104 -0.3906380226838233 0.9205415653428993 0.003829337613109808 -0.2787096497984679 0.9603677770951399
          0.002943920214631645 -0.8033086891895056 0.5955556088279316 0.004236380542682272 -0.983575719123238 0.18044627408484382
          0.0017142777712528944 -0.9338973976215191 0.35753700782922726 0.0139675150005472 -0.7336269860270757 0.679408826773349
          -0.0020810032694626368 -0.3902156117932752 -0.9207211552572215 0.0001991035084071644 -0.39347132868201584 -0.9193368663678194
          0.0033454871040464306 0.7237829514492203 -0.6900195989299811 -0.003673033419929851 0.9112402305441056 -0.4118588970307929
          -0.0014180368825932642 0.9523125796533649 -0.3051208609802891 0.0040511771420438155 -0.991313013920873 -0.1314613874674957
          0.0037352933202931624 -0.999018400146294 -0.044139367382766984 -0.0014744462462860162 0.6987258933493607 -0.715387973040786
          -0.013296982653575457 -0.8631247485226213 -0.5048156680810059 -0.00907240448383931 -0.4964208773711333 -0.8680345638204483
          0.004638561543557081 -0.7172264005784585 -0.6968247800272858 0.022767824396754514 -0.35834524279267377 -0.9333114770215238
          -0.0003713441092008796 -0.8983660337989489 0.43924746034541656 0.01450285940761496 -0.9827001301864488 0.18463510283946447
          0.006686673346333524 -0.8279037068191041 0.5608304027375357 -0.011966424853227155 0.6480581142451644 0.7614968714559723
          -0.00908519568717326 0.8629817932320467 0.5051533269902582 -0.017333907768900585 0.9485302051017085 0.3162119315446053
          -0.007833243238685127 -0.9999170068894131 0.01022837395096779 -0.008406147353780388 -0.9078508516542494 -0.41920897871744184
          0.010477241440198386 -0.6424936073911275 -0.7662194149676315 0.003493972784465304 -0.4936208975173032 -0.8696701683330258
          -0.002465768799213744 0.8333868936079406 -0.5526845443349543 -0.0008760313118336942 0.7212141448428606 -0.6927116209850402
          -0.010853790665813115 0.4417060417444881 -0.897094180069517 0.017304346031698403 0.5809574243733305 0.8137499804448056
          0.003465065625331725 -0.9999459232141262 -0.009805303037674011 -0.005763589195627297 -0.9734835180004205 -0.22868454521700635
          -0.008032900772177418 -0.8740373073724659 -0.48579240198491563 -0.020209614903596074 0.938524216303973 -0.3446213383939851
          0.017561496807379458 0.4171205209709898 -0.9086814980039896 0.008682818501514977 0.9039776849730146 0.4274914662700289
          -0.017556481755995137 0.9416218834592873 0.33621421525410783 -0.004459783911605122 0.6839623947361082 0.729503634613502
          -0.016166186727902387 -0.3485888855536942 -0.937136299198314 -0.002967717076338902 -0.5316342213989206 -0.8469688585142423
          0.0014045103700677196 0.6590259161782641 -0.7521189195572864 -0.00197075453546363 -0.774742222517499 -0.632274153176616
          0.012639929527727557 -0.7683950698406645 -0.6398509582911432 0.0019638853531981425 -0.35188401612863346 -0.9360415494771068
          -0.002466928593823702 0.998596724465737 0.05290081426229494 -0.002972353358571181 0.9476675414373273 -0.3192450407158163
          0.0020407612024537438 0.9105847521508146 -0.4133173652826047 0.005430358676518156 0.999917201541099 0.011666244762629195
          0.0011382167381659197 0.9878065088320264 0.15568238683852745 -0.021437172463167814 0.9602263006312692 0.278398813238799
          0.010949095348128794 0.7883815259235196 0.6150891698717842 0.0014639184468241916 0.3418140740766371 -0.9397664580659987
          -0.0009736300934088299 0.4396475280690868 -0.8981698631702039 -0.002694394577161144 0.9987881983742116 0.0491413779442421
          0.005338554164880362 0.9715070996678529 -0.2369503220812023 0.0028194972142929556 0.923260585300725 -0.3841639520642474
          0.008302110816702034 0.9780506533425284 0.20820181183707467 0.0032234596714855093 0.6687143968148122 -0.7435123837572232
          0.0055704056026195815 0.8783656478625821 -0.47795685917911945 0.006736260128741922 0.3867242278556659 0.9221708054308144
          -0.0026431886414382557 0.7135206812346899 0.7006291822385003 -0.003238046349162203 0.6931180780174688 -0.7208167901632223
          0.006994207089651021 0.6363255263728811 0.771388945703439 -0.004984955264896125 0.24738382650828683 0.9689047386627464
          0.010987610017473417 0.20134809996988062 0.9794581231806814 0.004760012599695268 0.6572146056399365 0.7536884664193778
          0.002604123880731646 -0.0060963759081240935 0.9999780261283748 0.0004982469472682646 -0.33082938514757254 0.9436904522526752
          -0.0013551006310717686 -0.43130166606226866 0.9022067593152863 0.009897345105188828 0.28037599597107243 -0.9598392279142888
          -0.0010623408526441952 0.5189881726374249 -0.8547807602504746 -0.0036272371233688093 0.02170584186528767 0.9997578204644212
          0.0005846265539213755 -0.02321732847187976 0.9997302705582247 0.001221148631177186 -0.31412452986115896 0.9493810028305425
          0.009439811759796628 -0.44313338601599955 0.8964059862316487 -0.0016885303163096086 0.01482673305936438 0.9998886522269155
          -0.0033573818808586044 0.005660174661747284 0.9999783449703821 0.024546349066996716 0.3480071178573644 0.9371704875144605
          -0.02588905584498074 0.3423932284554323 0.9391999967500647 0.0009070952369225054 0.6792756615188874 0.7338826560468024
          -0.0035831996640838643 0.40604190856345995 0.9138474321079586 0.00038565494793391027 0.3005218544279709 0.9537748509378063
          0.008503152388441165 -0.7976610905484246 -0.6030460024115548 -0.0005095484157011156 0.7068931147527808 0.7073201995387407
          0.00886836959031333 0.036281010875903574 0.9993022767264329 -0.0008750849240157166 -0.9997125012642758 0.02396140735226085
          0.00048370444769899534 -0.9281219256856378 -0.3722760495809403 0.004426715369364839 -0.9414951402662334 -0.33699748522222583
          0.004171630521714643 -0.9934644340112454 -0.11406583999386702 -0.0002480949470113626 -0.9957166714038448 -0.0924567398156844
          -0.009851240718694435 -0.7534619482039278 -0.6574177101851182 -0.002211520681763381 -0.34197541323168434 0.9397062976916208
          0.01898352886430723 -0.31841924551111966 0.9477598903308725 -0.008947780983925393 -0.4234641316493732 0.9058686805613196
          -0.0000795963560348065 -0.6812502939888522 0.7320505656063129 -0.003501016955181501 -0.9999586492589334 -0.008393012124911475
          0.005100650651360243 -0.9598490323040734 -0.28047070889464887 0.002439463533756594 -0.34185340712421997 -0.9397501247966025
          0.00022814936359206572 -0.4376232267498465 -0.8991584172752433 -0.003220302123969832 -0.699559737593252 -0.7145668640461091
          0.0034950054147727255 -0.7275453917245763 -0.686050645300683 0.004970409365219902 -0.42191977014769677 -0.9066195467721049
          0.004320454553901826 -0.3187916280621478 -0.9478149774876596 0.0009213377198181314 0.9990533646186123 0.043491674847450514
          -0.004166546419473249 0.9317831076251106 0.3629915704743377 -0.0010273651355854599 0.8864044782985622 0.4629104075014213
          0.004462263211246092 0.4924057094940946 -0.8703543562622357 -0.0006242115178703901 0.4355992704055522 -0.9001404812484168
          0.000670910494901698 0.9999901270145615 0.004392693081638541 0.015005888124651097 0.8991080984930674 0.4374693709801536
          -0.00004844885469327918 -0.3890721671591631 -0.9212072765641731 0.0024681452657120194 -0.3775605893751581 -0.9259815924788303
          0.008908917301486413 0.9999532039898389 0.0037710771632117686 0.002526779312545268 0.37647007966513973 -0.9264253313156053
          0.0005740614112031742 0.39278402181611594 -0.9196305685760198 0.00016460965296216749 -0.3887314357502253 -0.9213510969023863
          -0.0003600137887947059 -0.7110075099875798 -0.7031843223020076 -0.000042420616107955015 -0.7090170168184169 -0.705191369815601
          0.013184155495831223 -0.8706334123893438 -0.4917556703029957 -0.0030637178019671273 -0.8317705889290499 -0.555111070891089
          0.0050288557745547325 0.9996055911207803 0.027629202117943404 -0.0005515332726229135 0.7134283723673801 -0.7007279452913806
          0.001017169069940274 0.393593628252509 -0.9192839719945676 0.008851590593679593 0.8722286174508369 0.4890182902957348
          -0.003079303875802391 0.7238258599230629 -0.6899758273985248 -0.0006123451786398983 -0.3930312844471687 -0.9195248960627389
          0.002074059232224647 0.33021690876960075 -0.943902797665602 0.0014622483916105606 0.41712226962263277 -0.9088492031214556
          0.00202270414965257 0.7286011503442404 0.6849352322555562 0.0009795881766041718 0.9281147810390435 0.37229288688323403
          -0.0032424856108520714 0.9466573789747312 0.3222255314523592 -0.017212673067574968 0.07127712492212314 0.9973080243077886
          -0.010345784198344206 -0.7114539914210483 0.7026565183931478 -0.005654000155548921 -0.4341471870089162 0.9008242072094235
          -0.0028173061489237326 -0.35600273368231206 0.9344806666789762 0.006417440142593488 -0.6723068339154858 0.7402447821717839
          -0.003113670669637254 0.42553529400876355 -0.9049364721392525 0.000505550644687902 -0.38839397788142627 -0.9214932785234995
          0.003908083961522026 -0.3259645744088119 -0.945373906510134 0.0014220813804033134 -0.3881580322753571 -0.9215917315518137
          0.0032245113741895515 -0.7181376293103572 -0.6958936326012027 0.0014380352991549953 -0.02618948520037825 0.999655962278732
          -0.0023873929923422656 -0.392813937856546 0.9196148707912098 -0.00009461608799536733 -0.40900438603343336 0.9125324121658421
          -0.007009353604821392 0.10132708364079496 0.9948284731967084 -0.004495300089105577 -0.3167702126647559 0.9484916576572691
          0.004372344484291776 -0.7046653146112312 0.709526375117631 0.0003610493646876573 -0.9156665000810539 0.4019387145730921
          -0.0028207328838241886 -0.9312283984013823 0.3644251822758612 0.008148590475321165 -0.8802858178177624 0.47437377606922865
          0.001252321482857016 -0.9958301193636956 -0.09121844692271235 -0.017246181597311297 -0.9725230059047897 0.23216712128599284
          -0.011339805129092205 -0.9659383126151292 -0.2585238577808072 0.0023501226227577304 0.0758855178519434 0.9971137673826395
          -0.02227355486327409 0.3210945065391495 -0.9467851956088734 0.004287869978202526 0.3786160205969965 -0.9255439066399523
          -0.0008081828329787942 0.42250725249473486 -0.9063591829014912 0.001739176673333845 0.6977619385046808 -0.7163276152981183
          -0.0032741439588214578 0.32915102380850053 -0.9442716153242946 -0.006621134778800185 -0.4536537033691458 -0.8911534536732156
          -0.003430983248668777 0.7210268921989441 -0.6928985849890874 0.00036256714772784694 0.7316874390292829 0.6816401984271707
          -0.0009490689378216472 0.8366912076238278 0.5476741023210171 0.00436842844667891 0.9416397598797984 0.3365939385170532
          0.0008436965618163095 0.9983811481660285 0.05687153209466356 -0.0022985650484043207 0.4840232983902555 -0.8750520917146224
          -0.005311662908458455 0.7983023281833476 -0.6022334921392148 0.0032795419260647687 0.7904649744089898 -0.6124984643550956
          -0.0020908284008560843 0.9331294792840023 -0.35953442578947176 0.016620440744199827 0.902905507374076 -0.42951764306374063
          -0.0180479298069309 0.7267696659967623 -0.6866441034601832 0.005244053405885827 -0.9357034567278144 -0.35274855204734035
          -0.0010181502265977794 -0.8884533791115241 -0.45896574656005706 0.009836620314329195 -0.6952968307350217 -0.7186553819951716
          -0.017103616000302236 0.9356968042431503 -0.3523903472697144 -0.0049804284258541795 0.7104927902925099 -0.7036868552666439
          -0.0022383298746827237 0.796319462010973 -0.6048721388044968 -0.004553096641574168 -0.6891023526434721 -0.7246497201353247
          -0.0020962684677270052 -0.8918402751963226 0.45234558602495384 -0.0029681804057986928 -0.9349708281237197 0.3547121938455519
          0.0028417179920779837 -0.9993869949574218 0.034893537350456354 -0.0011072908290215514 -0.9999399158671608 -0.010905895772272784
          -0.00469590525779571 -0.7012252208774057 0.7129243564917974 -0.0016873231416044889 -0.42722521560144433 0.9041436656278222
          0.00005284472825619695 -0.32541231718014424 0.9455722188362367 0.007168121646045134 -0.7034504601536479 0.7107081455433647
          0.000054985561048747957 -0.39664546730578587 -0.9179718787862529 -0.0016872254459569087 -0.38458284705298856 -0.923088937764348
          -0.006853370817083261 -0.9850231532746663 -0.17228586367220247 0.0018449921681347842 0.02360250747428551 0.9997197195438459
          0.0029645214882650867 -0.37794842495926423 0.9258219049488713 -0.002522149307425481 -0.3858539862307438 0.9225564156585309
          0.0034571555678382273 0.008545133046039792 0.9999575134857507 0.0030345245751953816 0.9981187407214611 -0.06123537442693793
          0.006524309603579268 0.9574250770775695 0.2886081342706871 -0.0020569820259536075 0.9354697248504362 0.35340085273410704
          -0.003724668262043508 0.9998248609762646 -0.018340507630132934 -0.0014427899682249675 0.6312594513912982 0.7755703858362983
          0.0058965241529906 0.941803335510128 0.33611264216763775 -0.0009601637461791852 -0.40116833538080654 -0.9160038453922413
          -0.005570282522627233 -0.4221352311971741 -0.9065157574663149 -0.004392648929490258 -0.8926976664480266 0.4506346424251358
          -0.002992010353634911 -0.6485905314252138 0.7611316380361564 -0.015438470934374065 -0.6985881615726764 0.7153574170480912
          -0.0015694048807160341 0.3926648815798833 -0.9196802856113513 -0.0038634650362041815 0.023477697571757897 0.9997168956032719
          -0.0027078851785161855 -0.3786333239419687 0.9255427993121205 -0.004029933762307739 -0.5087579779163187 0.8609001565456763
          0.030236700208025182 -0.6843645442195826 0.7285128087931282 0.0005919042593628654 -0.9112746724894862 0.41179864124172083
          -0.000373757197642875 0.9934981139838438 0.11384795920921312 0.005360141624507568 0.9406825936712425 -0.33924552590374607
          0.0008846277006909868 0.927175071620719 -0.3746272867784004 0.0004185912624739682 0.39044102279072973 -0.920627846908556
          0.0005232552593036202 0.39103057529945423 -0.9203775395917219 -0.005328501092087324 -0.5180834702746213 -0.8553134658733703
          0.015416992707912915 -0.5031025744114053 -0.8640891828720347 -0.001066493860550914 -0.3690640519124662 -0.9294033506378153
          -0.0009914518745749701 -0.4445460766764457 -0.8957554368993581 -0.001989852298638742 -0.7093277483767614 0.7048760074442763
          0.0007014040966440962 -0.39488290207023846 0.9187311912006033 0.005297668255453388 -0.7160621166864982 0.6980164609502465
          0.005583430107410301 0.7125942268427002 -0.7015541983187684 -0.0061191591020890845 0.9271725050639175 -0.37458470570137165
          0.0008634741285474617 0.9267169457622629 -0.3757591740057614 -0.009381931217660145 0.6848442800977056 -0.7286290492315568
          -0.006201182724309132 -0.9011008874544301 -0.4335651461564437 -0.00821794074267849 -0.6760865347206654 -0.736776399608017
          -0.0016740482756307348 -0.9908632745129017 0.13485981159686114 0.005490616736302215 -0.7942013609268265 0.6076298638396829
          0.002368479539759059 -0.9151811982009781 0.4030356867128416 0.003984003982479411 -0.9295304703191658 -0.36872378884538765
          -0.007687631013980905 -0.9974660349718683 -0.0707277131462094 0.006672150049298951 0.8481066179003953 0.5297835851432852
          -0.0038265322298706465 -0.9983401285462089 0.057466036799426336 0.0007415319201291248 0.3534910730939399 -0.9354376042116901
          0.003578739711751667 0.4056908411775921 -0.9140033555773706 -0.008970956428440136 0.9416944779157213 -0.33634956846084474
          -0.0029509331822256154 0.999653942844643 -0.026139750352921088 0.011272802683697543 0.9401366300461221 -0.3406112751586112
          0.0037976527633564344 0.6585274201535098 0.7525471511735672 -0.002637525045387543 0.3878657847392441 0.9217120898036681
          0.0026527721225502367 0.3605609026372591 0.9327319005424178 -0.007610627861604679 0.7571243832358632 0.6532264130095062
          0.008371409392580093 0.9981627336166242 0.06000897202726997 -0.005675172931486893 0.9370729182678159 0.34908757964332787
          0.002840672248634661 0.9032440712914049 0.42911779065671835 -0.00019798544203530424 0.9966162598498096 -0.08219483806627663
          0.0018878951110601837 -0.8823952141157192 0.4705051773973627 0.0064331313524796626 -0.9681927565474657 0.250122771834196
          -0.0011069600609374041 -0.9023992027128439 -0.43089958642663717 -0.013377080701207461 -0.7279278346291357 -0.6855232463484014
          0.0015874282587994616 -0.6466011967233262 -0.7628265677514684 0.0013833969140905154 0.31407842864649593 -0.9493960326817918
          0.008361393017090326 0.3947564856531223 -0.9187477369450278 -0.01113571705018982 0.7146594621574287 0.69938390670263
          -0.010776980980064797 0.8551739412786662 0.5182290872180639 -0.015373819237345073 0.42427073183714603 0.9054048772722787
          -0.004392520952141756 0.3573910968018122 0.9339444896172805 -0.008955462223841448 0.4297642741244202 -0.9028967096975532
          -0.004082543177902306 0.6375679578436758 0.7703833019817117 0.013852927547729807 0.3882995523945589 0.9214290824629655
          0.002906400323262236 0.10731129834701185 0.9942212219039783 -0.007930081845847658 0.024770701571725437 0.9996617058513158