<?xml version="1.0"?>
<VTKFile type="PolyData" version="0.1" byte_order="LittleEndian" header_type="UInt32" compressor="vtkZLibDataCompressor">
  <PolyData>
    <Piece NumberOfPoints="1480" NumberOfVerts="1480" NumberOfLines="0" NumberOfStrips="0" NumberOfPolys="0">
      <PointData>
      </PointData>
      <CellData Normals="Normals_">
        <DataArray type="Float64" Name="Normals_" NumberOfComponents="3" format="ascii" RangeMin="0.9999999999999998" RangeMax="1.0000000000000002">
          -0.99959375137562 -0.023556194037429142 0.016044872492052265 -0.9995539301705539 -0.025708224371370873 -0.015199601319462464
          -0.9998828479460016 0.014084835642708253 0.005992310765569508 -0.9999097934743364 -0.013114622480579017 0.0029002743493992127
          -0.9999413582746495 -0.010569421503537253 -0.0023595213348650136 -0.9984423507510354 -0.05545059022031122 -0.006172865701256497
          -0.9999095159379484 0.009369768035001462 -0.009652325300562087 -0.9999031530083983 -0.003020841856832758 0.013585253709063924
          -0.9999005784818855 0.014038267706701333 -0.0013267220453661965 -0.9999361003486581 0.00428351339889428 -0.01046167923805074
          -0.9999993255086909 0.0008748638229819217 -0.0007639341952376747 -0.9998607735122895 -0.007690156160547768 0.01480861538539365
          -0.9994327241130067 -0.03336345926782869 0.004594513874052863 -0.9978222933064349 -0.065585919791804 -0.007011284172678129
          -0.9995969612170053 -0.0252653996308867 -0.01294506497551578 -0.9996551478418252 0.026046641480306987 0.0033403384461351973
          -0.9997114051420166 0.023996958933010352 0.0011191027397094487 -0.9995795639028003 0.028844119864526407 0.0029516397355549037
          -0.9975210407615116 0.07036483546857483 0.0007504449020723232 -0.999735330475626 0.022922430853538744 -0.0019573355755980112
          -0.999959492222486 -0.005663761500973628 -0.006995407050909352 -0.9999487568738749 -0.009400969428388965 0.0037557156706976126
          -0.9999747814137405 0.00683056047809975 0.0019442170910138536 -0.999996599722566 0.0022526189316025057 0.001313868811928907
          -0.9997299501261467 -0.022972155502312738 -0.003508118063812798 -0.9997814784051167 0.02074406720262055 0.002584398183728478
          -0.9999997412848828 -0.0006946597850580269 0.00018675639376575912 -0.9999996564362615 -0.0002858660508955401 0.0007780796616898813
          -0.9996938123304777 -0.02434453786702832 0.0044300185322814255 -0.9999559132393863 -0.0006353961831878926 -0.009368449673001867
          -0.9997504790318698 0.02191017388748052 0.0043501673263519475 -0.9999999427772678 -0.00028069198492952294 -0.00018883185818208646
          -0.9999970095498567 0.002445542578468976 -0.000014589048901642662 -0.9998161400737763 0.018826954109470807 0.0036375605747641184
          -0.9999713299417349 0.0020251343526649077 -0.007296446080891442 -0.9998047411988168 -0.01959464677482306 0.002555248351298589
          -0.9999887930231376 -0.00454443127522366 0.001327393126923686 -0.999988461542982 0.004704075832950725 -0.0009738847250613002
          -0.9999518403877975 -0.009800410896121856 -0.0005185087501735698 -0.9995290170843971 -0.030430305694470167 -0.003967430105207704
          -0.9994486144833855 -0.03303228727467812 0.003366749863648659 -0.9999783873447418 -0.006431312735547534 0.001364939525054385
          -0.999999934225055 -0.00011658876583133238 0.000343448607052769 -0.9999991305764375 0.0013165050406843926 0.00007523860053213598
          -0.9999975309605446 0.0022220022017338343 -0.000027911110885938714 -0.999994443932861 0.0033303413426883544 -0.00014467186761469254
          -0.9999821836978192 0.005961475676293043 -0.00030511424384614666 -0.9999863590306419 0.005174454679484411 0.0007118787891091367
          -0.9999928851738009 0.00371568953068967 0.0006505790413487776 -0.9999994848347009 0.0000195143863557964 0.001014864287157343
          -0.9998485328147414 0.016961154390140194 0.003902649095497947 -0.9995812112536524 -0.028518310835317872 -0.004909995497079615
          -0.9998318769536799 -0.016522304801253378 -0.007951809312110297 -0.9999706124971909 -0.0028152412128844284 0.007130817548216403
          -0.9994613536783478 0.03243780255386956 -0.004979103224549948 -0.9973796378669049 0.07084917529306484 0.01463736071749777
          -0.9994213959076192 0.03135664219683169 -0.013177040343172618 -0.9996174835772943 -0.027523097658995806 0.002713967916378737
          -0.9999544827375795 -0.00946127998822148 0.0012315169525848643 -0.999995285419874 -0.0029626571952643876 0.0008073415435965721
          -0.9999962383184969 -0.0025877046016183447 0.0009094689388338607 -0.9996212944029725 -0.027395688319316203 -0.0025969285004429636
          -0.9997960616987666 0.01972966687690584 0.004309902152307306 -0.9998186272537608 0.018708519301354747 -0.003564253351805428
          -0.9994731837819759 -0.03211054222420452 0.004718895928913837 -0.999845629186565 -0.015788893022503137 0.007708998225813005
          -0.9999201695146904 -0.001454047288914645 -0.012551507646264979 -0.9989796044965392 -0.041958641423633425 0.016709943441585322
          -0.9975195189999083 -0.06758239197606573 -0.01968322913001927 -0.9989880259490687 -0.04494165282577641 0.0017809693062981963
          -0.9998187774344126 -0.01895401804831012 0.0017769325763064543 -0.9999997133675685 -0.0005365708480035286 0.0005341877064920283
          -0.999945593663157 0.010428896648173584 0.00021869690882939037 -0.9999414264157542 0.010794434906327774 -0.0007898814339972199
          -0.9999995692700087 0.0009211804686852992 -0.00011351802041360788 -0.9999982777476002 -0.00180740631718648 -0.0004216446822782788
          -0.9999465361485067 -0.010254948424033159 0.001326980566425769 -0.9999872794598205 -0.002235829682162594 0.004521281254185158
          -0.999503782434587 0.03095751597240955 0.005815591437820464 -0.9999605897432388 0.008252202343144848 -0.0032741589518328405
          -0.9990483136529272 -0.043617229672684846 0.00006529105896670536 -0.9998922952899242 0.013445987441200085 0.005882452003897158
          -0.9976714382785358 0.06789302202425138 0.0064991386854175125 -0.9989673325560188 0.043545741856779174 -0.012962902917768224
          -0.9967209698937448 0.08042286746298481 -0.008914626358060186 -0.9998241807816775 -0.0024331308365731215 0.018592670560718862
          -0.9995591675695267 -0.02955726720914278 -0.0027997290658948832 -0.9961905672492454 -0.08673061585976932 -0.009063884168043478
          -0.9999030227074537 -0.011867264703045942 -0.007287880965354752 -0.9999767729043993 -0.006133284903783262 0.002972619718772379
          -0.9999894907335767 0.00023169210528512033 0.004578727025085778 -0.9994699845063549 -0.03129056415062298 -0.008980571585497641
          -0.9991258439062702 -0.03883409395510903 0.015474533442689115 -0.9982985414771215 -0.05720731897462374 -0.0112847126852184
          -0.9999560124579095 -0.008246031239193707 -0.004469465077525123 -0.9984796056236649 -0.052713151350029075 0.01611833826296697
          -0.9950442380375722 -0.09936597640236998 -0.0036561019995230543 -0.9980277352761707 -0.06275681994107185 0.0014903591518730572
          -0.9994193640212587 -0.03406641240231546 -0.0006437121856574771 -0.9219777802861269 0.3872425348764313 0.00043799673766117716
          -0.9225261565934325 0.38593114654341065 -0.001624970350014633 -0.6955914888552179 0.7184134835863372 0.005877689471637774
          -0.6929573705217333 0.7209750490638686 -0.0022497259738746946 -0.008465296704745521 0.9999581531608233 0.003468526905806678
          0.5449146540055959 0.8384894685132278 0.0018523073088405795 0.9272322674120175 -0.3744733351785496 0.0031691497633872827
          0.9997704341794887 -0.02097850961296026 -0.004356727553487601 0.8702577598740519 -0.4925592676670888 -0.006066235592042363
          -0.690019598913503 0.7237829514648932 -0.0033454871119642 -0.41185889700142314 0.9112402305573652 0.003673033423638655
          -0.30512086095533675 0.9523125796613578 0.0014180368838386062 -0.8441785235159702 -0.5357421747129832 0.01851871129964971
          -0.8497879680680145 -0.5270492149285969 -0.008918204414839523 -0.019769672426978545 -0.9998014066425128 0.0025114393845956113
          -0.520676309996046 -0.8537539730081033 0.0005777385050985287 -0.2878394973982982 -0.9576458932366718 -0.007922556685306663
          -0.7153879730416541 0.6987258933484777 0.0014744462435797535 0.6680504090517451 -0.7441150809601454 -0.0011820547671332249
          0.904895202808602 -0.4255919336131804 -0.006014813161961729 0.5808204001325659 -0.8140307710565745 0.001251624098847058
          0.9407136274540032 -0.3391983184326965 0.0015400956989086519 0.48953279893362406 0.8719137309677557 0.011139323053943077
          0.8191772791855287 0.5735403196391571 0.00029498204641632825 0.894057963691348 0.44770056214505477 0.014985466795606344
          0.4790218415247721 0.8776725065952693 0.015134282572782789 -0.8866584156089273 -0.4621540492880807 -0.01582683659160392
          -0.8750764287596815 -0.4839809989140013 0.0019069660215847212 -0.5479569552814456 -0.8364761548025073 -0.007128646821094615
          0.19958505762893516 -0.9797856777957428 -0.01363196088579412 -0.32284475034571763 -0.946444141003056 -0.0038412413616846263
          -0.8683972919313022 -0.4958680358449108 -0.0010170514692274123 -0.9074979947432271 -0.4200493411404409 -0.0024373232250213006
          -0.8865117436069042 -0.46268313220413265 0.004609514163093683 -0.8712687510683351 -0.4907798466260785 -0.005089750240077739
          -0.9065900026993471 -0.42199556030331 -0.003783396607973647 -0.8479723168846607 -0.5300217131926462 -0.0044646770983647974
          -0.9265586798525023 0.37614198998331533 0.002493223090629635 0.9697027216917963 0.24422498621659725 -0.005548662093283652
          0.9020908329506242 0.43151920192768384 -0.004827781492969927 0.9948404932537694 -0.10074696866358793 -0.011934876945104849
          -0.46569648165271627 0.8849177276580855 0.006884929391912922 -0.41672223868430963 0.9089198407529211 -0.014397877330419894
          -0.7333984943644772 0.6797586455435827 0.007404881678459057 -0.9155782591620588 -0.4020242842950018 0.009639822968566034
          -0.9051760074201686 -0.42502411124739836 0.0033015828388954322 -0.916419239930883 0.4002029070581326 -0.0036619484871075786
          -0.709329679850949 0.7048768124316404 -0.0002908242775767247 -0.917000770625795 0.39887106433679265 0.003385366528506989
          -0.9208896081918854 -0.38972655679900353 0.008691400910604845 0.39346241813355914 0.9192583418665023 -0.012305544495924976
          0.45684485241078354 0.889262243588253 0.022482058494625857 0.7314262561566702 0.6818990679072736 0.005412300049725221
          -0.710744418204754 0.703450000522042 -0.0006846578158733137 -0.9079217176561282 0.4189470077627764 -0.012710597742128573
          -0.8759022095028863 0.4824384209906811 -0.006963428751715188 -0.5884804866945264 -0.808495328916539 0.005100970487149561
          -0.3249969388872598 -0.9457139199417481 -0.0014735475301946722 -0.8586417662095525 -0.5125685024549895 -0.002801358882721196
          0.41808394549404904 0.9084052707646655 -0.002382974423613826 0.5068475621759608 0.8619915752190563 -0.00872198186511825
          0.06522810896349851 0.9977664495667318 -0.014401594357730984 -0.6682814671002522 0.743779853588247 -0.013835104863362547
          -0.6381466443695478 0.7699144737836832 0.0007505586453551576 -0.9118677448949398 0.4104743988754949 -0.0028255420750786945
          -0.91938063421991 -0.39336410767311525 -0.0019819727368816857 -0.6397535682649018 -0.7685783347363179 -0.0016478065038118554
          -0.6702043807960725 -0.7421364381686159 0.007719786535482122 0.3604148866474295 0.9327608154282847 -0.007640070973614982
          0.792913568803922 0.6093192354355299 0.004259311551088578 0.4172285860175021 0.9087733919369051 0.007157451873962848
          0.7096062882115233 0.7045826371563952 -0.004714143443289675 -0.08277248864854299 -0.9965610616399518 -0.003842596254989929
          -0.36271011940693565 -0.9319012364057343 0.0012061779595524532 -0.5679102164909651 -0.823088559296109 0.0017915247809441855
          0.7497837126517888 -0.6616792061677487 0.002238831685856429 0.9205415652947199 -0.3906380227973611 0.0022719396372758113
          0.9603677770425423 -0.2787096499787911 -0.003829337679723687 0.5955556088279311 -0.803308689189506 -0.002943920214631457
          0.18044627408484315 -0.9835757191232383 -0.004236380542682241 0.3575370078292271 -0.9338973976215195 -0.0017142777712528862
          0.6794088268006254 -0.7336269860019368 -0.013967514994147496 0.01668441541371396 -0.9998600885648163 0.0011973209512081647
          0.9995636916208352 0.028613793080245364 -0.0073264752022160606 0.9490987391953012 -0.3149268932099859 0.005712721855272298
          0.9495476837884244 -0.3135637806099943 -0.006078791130297423 -0.9013012874267531 0.4330327306731114 0.011774695268496078
          -0.9158497220790879 0.40150506533924424 -0.003601260138682368 -0.1314613874674957 -0.9913130139208728 -0.004051177142043815
          -0.044139367382765825 -0.999018400146294 -0.0037352933202932288 -0.4382002002126552 0.8988478267946359 0.00729169391494059
          -0.3973962359164484 0.9176301255397905 -0.005584297741583633 -0.7161482971369796 0.6979477458891991 -0.0007486761586912359
          -0.028793403449734856 0.9995849668275485 0.0009132415614685394 -0.08246845994348427 0.9965936519376729 0.00021455088549080778
          0.43924746034541845 -0.898366033798948 0.0003713441092012308 0.18463510283946444 -0.9827001301864488 -0.014502859407614761
          0.5608304027375354 -0.8279037068191043 -0.006686673346333445 0.010228373950965269 -0.9999170068894133 0.007833243238685353
          -0.41920897871744023 -0.9078508516542502 0.008406147353779876 -0.7662194149676311 -0.642493607391128 -0.010477241440198218
          -0.869670168333024 -0.49362089751730637 -0.003493972784465031 -0.5048156680810051 -0.8631247485226217 0.013296982653575413
          -0.8680345638204496 -0.496420877371131 0.009072404483839336 -0.6968247800272872 -0.7172264005784571 -0.004638561543557581
          -0.9333114770215237 -0.35834524279267393 -0.022767824396754358 -0.00980530303767458 -0.9999459232141262 -0.0034650656253315316
          -0.22868454521700607 -0.9734835180004205 0.005763589195627237 -0.48579240198491547 -0.874037307372466 0.00803290077217782
          0.999655962278732 -0.026189485200378844 -0.0014380352991545723 0.9196148707912095 -0.3928139378565469 0.002387392992342292
          0.7614968714559716 0.648058114245165 0.011966424853227216 0.5051533269902576 0.8629817932320469 0.00908519568717436
          0.3162119315446095 0.9485302051017069 0.017333907768901122 0.42749146627002876 0.9039776849730143 -0.008682818501515137
          0.33621421525410927 0.9416218834592869 0.017556481755995522 0.7295036346135017 0.6839623947361085 0.004459783911605147
          -0.937136299198314 -0.34858888555369427 0.016166186727902595 -0.8469688585142423 -0.5316342213989206 0.0029677170763388193
          -0.8750520917347538 0.4840232983538779 0.0022985650447240337 -0.6022334922402853 0.7983023281070319 0.005311662918795143
          -0.6124984644093063 0.7904649743669593 -0.0032795419320207075 -0.6322741531766151 -0.7747422225174999 0.0019707545354636243
          -0.6398509582911428 -0.768395069840665 -0.012639929527727396 -0.9360415494771073 -0.3518840161286326 -0.001963885353198105
          0.05290088020199798 0.9985967209775743 0.002466926567700038 -0.3192449026236401 0.9476675880114709 0.002972336007864182
          -0.41331736799922814 0.910584750840274 -0.002040795763115476 0.011666467065646956 0.9999171989304912 -0.005430361793363589
          0.813749980444805 0.5809574243733313 -0.017304346031697986 -0.9397666422661463 0.34181356807793384 -0.0014638174901764546
          -0.8981446631471205 0.4396990006621454 0.0009761542173978023 0.04914137872774613 0.9987881983364053 0.002694394301834846
          -0.23695032212770967 0.971507099656527 -0.0053385541616916094 -0.38416395220827293 0.923260585240906 -0.0028194971785340957
          0.20820181205583632 0.9780506532974658 -0.008302110639272829 -0.7435123837284796 0.668714396846782 -0.0032234596691539533
          -0.4779568588873015 0.8783656480214816 -0.00557040558547792 -0.9007594037447535 0.4342625536951145 -0.006966421146757025
          -0.7208167902372011 0.6931180779405682 0.003238046341743877 0.1556823868385247 0.9878065088320267 -0.001138216738165843
          0.2783988132387974 0.9602263006312697 0.02143717246316714 0.6150891698717822 0.7883815259235211 -0.010949095348128346
          0.9221708054308153 0.38672422785566385 -0.006736260128741939 0.7006291822385017 0.7135206812346887 0.0026431886414386018
          0.9999789647822821 -0.005938513604292404 -0.002608457231228691 0.9445816887955131 -0.328276177401752 -0.0004295843456275435
          0.9037720884000767 -0.4280109414908713 0.0016267123475844723 0.856972390031563 0.5152659335075902 -0.009966969957930385
          0.8928540536744868 0.4503211808895414 -0.004740556853943457 0.512072275212199 0.8585289012680939 -0.02664790135079337
          0.9996700806046094 0.025457212726410286 0.0034147128980396165 0.9997303041761911 -0.023215872751163824 -0.0005849480167070436
          0.9493838806230176 -0.31411583092593814 -0.0012214642391501602 0.8964071091070223 -0.4431310930317051 -0.009440822576304107
          0.9998887051511118 0.014823602567867808 0.0016846715237800985 0.9999783449703821 0.005660174661747058 0.0033573818808586508
          0.9371704875144609 0.3480071178573635 -0.02454634906699682 0.939199996750065 0.3423932284554314 0.025889055844980833
          0.7338826969121989 0.6792756173685474 -0.0009070950646946879 0.9138475113338702 0.4060417310800288 0.0035831062537451473
          0.9537750018543152 0.3005213753677732 -0.0003857264093640505 -0.6030460024115554 -0.7976610905484242 -0.00850315238844154
          0.7073216979301298 0.7068916152097715 0.0005098856327025731 0.9993022767264329 0.03628101087590349 -0.0088683695903133
          0.023961409436817505 -0.9997125012149986 0.0008750841403732281 -0.3722760374380079 -0.92812193055714 -0.0004837027417766632
          -0.33699748562466514 -0.9414951401225098 -0.004426715300210104 -0.11406583999386981 -0.9934644340112448 -0.004171630521714706
          -0.09245673981568564 -0.9957166714038448 0.00024809494701129027 -0.657417710185119 -0.7534619482039272 0.009851240718693964
          0.9397062976916206 -0.34197541323168457 0.002211520681763925 0.9477598903308725 -0.3184192455111195 -0.01898352886430726
          0.9058686805613194 -0.42346413164937347 0.008947780983925535 0.732050565606313 -0.681250293988852 0.00007959635603512361
          -0.008392970611356942 -0.9999586495972596 0.0035010198431059698 -0.2804707088946489 -0.9598490323040733 -0.005100650651360372
          -0.9397501250115701 -0.34185340654511953 -0.002439461874195631 -0.8991584037290008 -0.43762325458437634 -0.00022814577210092943
          -0.7145668552790155 -0.699559746547579 0.003220302306527414 -0.6860506339114928 -0.7275454024118218 -0.0034950163174693807
          -0.9066195432444115 -0.4219197776987528 -0.00497041184708577 -0.9478149773702474 -0.3187916284112126 -0.004320454555339254
          0.04356384690149909 0.9990502110757322 -0.0009311244158041408 0.36340812721839694 0.9316203608834288 0.004246911707026796
          0.4633243177542303 0.8861880550702053 0.001143515834475627 0.9973080243077886 0.0712771249221239 0.017212673067574694
          0.0037972528990110974 0.9999924650010935 -0.0008067288625399859 0.77138894570344 0.6363255263728796 -0.0069942070896508906
          0.9689047386627466 0.24738382650828616 0.004984955264896541 0.9794581231806813 0.2013480999698814 -0.010987610017473356
          -0.676155554361722 0.7367292042951763 0.00661406413551363 -0.4501233510487801 0.8929569752283627 0.004099906295243687
          -0.3195672344061841 0.9475633657930613 0.0006711936442666137 0.7536884664193767 0.6572146056399377 -0.004760012599695728
          -0.8763705771772332 0.48163051077311736 -0.0025811916761613956 -0.9223986824564351 -0.38623781546505076 -0.0010102016720399828
          -0.9259656621897777 -0.3775997955219059 -0.002446807565282118 0.9971137673826395 0.07588551785194257 -0.00235012262275769
          0.4374693709801524 0.8991080984930678 -0.015005888124651558 -0.49175567030299605 -0.8706334123893437 -0.013184155495831098
          -0.5551110708910886 -0.8317705889290501 0.0030637178019673364 0.003771077163212241 0.9999532039898389 -0.008908917301486843
          0.6995762624230868 0.7145569495569017 -0.0011911734045626644 0.5042556460295975 0.8635544188133049 -0.00009589206696497093
          0.33914834276142913 0.9407326945792764 -0.0006316263056301074 0.02762920211794211 0.9996055911207803 -0.005028855774554436
          0.4890182902957331 0.8722286174508379 -0.008851590593679489 -0.9071013498362422 -0.4209109116647585 -0.0010703115476670719
          0.05748969566592802 0.9983403288186502 -0.0033945171244789646 0.44953891422526737 0.8932491312437039 -0.004555670042480993
          0.49328287652835745 0.869855304995776 0.004873612070614672 0.014477313138168853 0.9998920348254461 -0.002515173339602385
          0.6944623933604261 -0.719486207914226 0.007847345367432477 0.8930842655927396 -0.4498871152116183 0.0014415676345661606
          0.9337341252217514 -0.35796554040453954 0.0011203924565316807 0.6908414119148025 -0.7229883278537187 -0.00510111466699584
          0.6858617999673821 0.7276803790653499 0.008652009524468712 0.8762811493122356 0.48180009716860206 0.0001171680555122388
          0.9205596665438533 0.3906002506477832 0.0011595372174895043 -0.8911534536732159 -0.45365370336914523 0.00662113477880006
          -0.9460592976107627 0.3239841578688166 -0.002463910360406248 -0.9103251833093854 0.41388749577532363 -0.002280673927889772
          0.9978534810091334 -0.0654308015174499 0.0026908457293497797 0.9557219712327688 0.2942333920153667 0.004714310774869858
          0.9998952569191536 -0.014366345292167767 -0.0017559366520233939 -0.9453739065101333 -0.3259645744088145 -0.003908083961521877
          -0.9500523196278027 0.3120906576570183 0.00010664446164313617 -0.9286364431920597 0.370976166377519 -0.0033227030321298593
          -0.24769058270596017 0.9687462513134472 0.013419232650382426 -0.19600905883781924 0.9805640087005012 -0.008641394257643032
          0.30954784495197596 0.9508739347017757 0.004346491729041621 0.912532412165841 -0.4090043860334354 0.00009461608799533425
          0.9948284731967083 0.10132708364079586 0.007009353604821593 0.9484916576572698 -0.31677021266475347 0.004495300089105812
          0.2386688885407974 0.9710421633204478 -0.010690121451378331 0.8264588977395588 0.5629828641717924 -0.0039981240649158145
          0.9401390319961562 0.34068029391745164 -0.008691251558266277 0.9982390460746294 0.05839248086373842 -0.010446294586674608
          0.47437377606922904 -0.8802858178177622 -0.008148590475321188 -0.09121844692271125 -0.9958301193636957 -0.0012523214828568281
          0.23216712128599556 -0.972523005904789 0.01724618159731131 -0.25852385778080794 -0.9659383126151291 0.011339805129092474
          0.9996162538774092 -0.02769740920510876 0.00044554171488845327 0.4506346424251353 -0.892697666448027 0.004392648929490209
          0.7611316380361577 -0.6485905314252122 0.002992010353634897 0.7153574170480876 -0.69858816157268 0.015438470934373899
          0.7285128087931274 -0.6843645442195836 -0.030236700208025002 0.41179864124171583 -0.9112746724894885 -0.0005919042593627705
          -0.8553134658733708 -0.5180834702746208 0.0053285010920871454 -0.864089182872035 -0.5031025744114048 -0.015416992707912979
          0.0568715320946619 0.9983811481660284 -0.0008436965618162433 -0.9222407359044147 0.3865999753042914 -0.003533289289733292
          -0.9034405891330691 0.4287060637605895 0.0024925492561400768 -0.35953442578947115 0.9331294792840024 0.0020908284008560357
          -0.35239034726971535 0.9356968042431499 0.017103616000302826 -0.7036868552666451 0.7104927902925087 0.004980428425854241
          -0.6048721388044969 0.7963194620109731 0.002238329874682527 -0.6969530208874496 0.7171112375434765 0.0028212877772197864
          0.45660548594016886 0.8896494099269661 -0.0059462278751732855 0.2960666326339145 0.955141804826146 0.006977228265391397
          0.7514757513297426 0.6597604188489353 -0.0006203899389444441 -0.8703543562622358 0.4924057094940948 -0.004462263211246314
          -0.9001404812484168 0.4355992704055523 0.0006242115178701291 0.775570385836299 0.6312594513912976 0.0014427899682252885
          0.33611264216764053 0.941803335510127 -0.005896524152990671 -0.35274855203721384 -0.9357034567316386 -0.005244053404716506
          -0.45896574655155103 -0.8884533791159173 0.0010181502273549257 -0.7186553819912317 -0.6952968307390924 -0.009836620314459033
          -0.17228586367220067 -0.9850231532746666 0.006853370817083278 -0.7246497201333331 -0.6891023526455663 0.004553096641578953
          0.4523455860249542 -0.8918402751963224 0.002096268467727071 0.35471219384555464 -0.9349708281237188 0.0029681804057988107
          0.03489353735045881 -0.9993869949574218 -0.002841717992077847 -0.010905895772271402 -0.9999399158671606 0.0011072908290214458
          0.7129243564917973 -0.7012252208774059 0.004695905257795878 0.9041436656278181 -0.42722521560145305 0.0016873231416049846
          0.9455722188362317 -0.3254123171801587 -0.00005284472825551085 0.7107081455433649 -0.7034504601536475 -0.007168121646044966
          -0.9179718775554228 -0.3966454701542629 -0.00005498614287517275 -0.9230889374289506 -0.3845828478589536 0.0016872252332770104
          -0.35017755048069166 0.9366811930614005 0.0020064158128578254 -0.9196802856113521 0.3926648815798813 0.0015694048807157763
          0.9997168956032718 0.02347769757175813 0.003863465036204437 0.9255427993121186 -0.37863332394197335 0.0027078851785167194
          0.8609001565456754 -0.5087579779163199 0.004029933762307385 0.11384795920921341 0.9934981139838437 0.00037375719764278376
          -0.33924552590374496 0.9406825936712429 -0.005360141624507833 -0.3746272867784016 0.9271750716207184 -0.0008846277006910659
          -0.9206278469085721 0.3904410227906921 -0.0004185912624848553 -0.9203775395916982 0.39103057529950963 -0.0005232552592988568
          0.9997197196154068 0.023602504459243112 -0.0018449919629901009 0.9258219048734279 -0.3779484251436468 -0.002964521542286864
          0.9225564156363616 -0.38585398628380224 0.0025221492993146443 0.9999575135032766 0.008545131044107725 -0.0034571554468252846
          -0.06123537349392871 0.9981187407808696 -0.0030345238622178925 0.2886081634386023 0.9574250682922639 -0.006524308557290256
          0.35340086703998236 0.9354697194358247 0.00205698664264351 -0.018340496275909612 0.9998248611828476 0.0037246687171868047
          -0.9160038453922416 -0.4011683353808063 0.0009601637461789615 -0.9065157574663144 -0.4221352311971749 0.00557028252262693
          -0.43089958641822196 -0.9023992027168583 0.0011069600642702247 -0.685523246336326 -0.7279278346404718 0.01337708070315432
          -0.7628265677478763 -0.646601196727564 -0.0015874282588110083 -0.3563194175487591 -0.9343616019435533 0.00220669236408426
          -0.3757736500210514 -0.9267105529028606 -0.0013096138097434711 -0.0003775998451422859 -0.999999926417367 -0.00006770242002922871
          -0.9294016937808977 -0.36906822307210496 0.0010669187399775266 -0.8957486327153923 -0.4445597871882369 0.000991263665490832
          0.13485981159686097 -0.9908632745129018 0.001674048275630534 0.6076298638396838 -0.7942013609268259 -0.00549061673630245
          0.4030356867128451 -0.9151811982009767 -0.0023684795397592153 0.7048760074318755 -0.7093277483890719 0.001989852303038318
          0.9187311910348185 -0.3948829024560535 -0.000701404039785607 0.5297835851432866 0.8481066179003944 -0.006672150049298703
          0.6980164609595852 -0.7160621166774171 -0.005297668252442148 -0.7015541983187711 0.7125942268426976 -0.0055834301074101375
          -0.37458470570137126 0.9271725050639176 0.0061191591020890584 -0.37575917400576914 0.9267169457622599 -0.0008634741285468955
          -0.7286290492315577 0.6848442800977047 0.009381931217660249 -0.43348917553814187 -0.9011373948431914 0.006207278508989691
          -0.7367570848377839 -0.6761075663037461 0.0082192900031646 0.04889775476691383 -0.9987897543577873 0.0052949191368133475
          -0.3687738387169868 -0.9295106204493275 -0.0039827565634651015 -0.07217771070037289 -0.9973635913535898 0.007499648013260153
          0.056873641518442895 -0.9983756175426862 0.0033934048817564127 -0.9354376044597711 0.3534910724448867 -0.0007415283735676246
          -0.9140033724902759 0.4056908030951028 -0.00357873727068858 0.3710327762119857 -0.9286172123498377 0.00217988624541848
          -0.9049266278983379 0.4255671498559519 -0.0006317309751849377 -0.05028625511213239 0.998674502118693 0.010978677733589836
          -0.3681318433688306 0.9297479407363421 0.006907430375900565 -0.5725379115853847 0.819872698461252 0.0030163082255011265
          0.7525471536607506 0.6585274173167256 -0.0037976518094129537 0.921712090037596 0.3878657841826201 0.0026375251520319317
          0.9327319037253035 0.3605608944116922 -0.0026527710063420176 0.6993839067026304 0.7146594621574281 0.011135717050189899
          0.5182290872180645 0.8551739412786659 0.01077698098006477 0.9054048772722788 0.4242707318371454 0.015373819237345106
          0.9339444896172808 0.35739109680181164 0.004392520952142074 0.6532264142783476 0.7571243821399976 0.007610627975382095
          0.06000897775996051 0.9981627332644566 -0.008371410289412996 0.34908758096446446 0.9370729177748199 0.0056751730690582465