<?xml version="1.0"?>
<VTKFile type="PolyData" version="0.1" byte_order="LittleEndian" header_type="UInt32" compressor="vtkZLibDataCompressor">
  <PolyData>
    <Piece NumberOfPoints="16" NumberOfVerts="16" NumberOfLines="0" NumberOfStrips="0" NumberOfPolys="0">
      <PointData>
      </PointData>
      <CellData Normals="Normals_">
        <DataArray type="Float64" Name="Normals_" NumberOfComponents="3" format="ascii" RangeMin="0" RangeMax="1">
          0 0 1
          0 0 1
          1 0 1
          1 0 1
          0 0 1
          0 0 1
          1 0 1
          1 0 1
          0 0 1
          0 0 1
          1 0 1
          1 0 1
          0 0 1
          0 0 1
          1 0 1
          1 0 1
          <!-- <InformationKey name="L2_NORM_RANGE" location="vtkDataArray" length="2"> -->
          <!--   <Value index="0"> -->
          <!--     1 -->
          <!--   </Value> -->
          <!--   <Value index="1"> -->
          <!--     1 -->
          <!--   </Value> -->
          <!-- </InformationKey> -->
        </DataArray>
        <DataArray type="Float64" Name="sqrt-of-area" format="ascii" RangeMin="0.282842712474619" RangeMax="1.2">
          0.282842712474619 0.282842712474619 0.282842712474619 0.282842712474619
          0.4 0.4 0.4 0.4
          1.0 1.0 1.0 1.0
          0.8 0.8 0.8 0.8
          <!-- 0.4 0.4 0.4 0.4 -->
          <!-- 0.4 0.4 0.4 0.4 -->
          <!-- 0.4 0.4 0.4 0.4 -->
          <!-- 0.4 0.4 0.4 0.4 -->
          <!-- 1 1 1 1 -->
          <!-- 1 1 1 1 -->
          <!-- 1 1 1 1 -->
          <!-- 1 1 1 1 -->
        </DataArray>
      </CellData>
      <Points>
        <DataArray type="Float32" Name="Points" NumberOfComponents="3" format="ascii" RangeMin="1" RangeMax="4">
          2 2 2
          4 2 2
          8 2 2
          10 2 2
          2 4 2
          4 4 2
          8 4 2
          10 4 2
          2 6 2
          4 6 2
          8 6 2
          10 6 2
          2 8 2
          4 8 2
          8 8 2
          10 8 2
          <!-- <InformationKey name="L2_NORM_RANGE" location="vtkDataArray" length="2"> -->
          <!--   <Value index="0"> -->
          <!--     0.52118980313 -->
          <!--   </Value> -->
          <!--   <Value index="1"> -->
          <!--     24.873865127 -->
          <!--   </Value> -->
          <!-- </InformationKey> -->
        </DataArray>
      </Points>
      <Verts>
        <DataArray type="Int64" Name="connectivity" format="ascii" RangeMin="0" RangeMax="15">
          0 1 2 3 4 5
          6 7 8 9 10 11
          12 13 14 15
        </DataArray>
        <DataArray type="Int64" Name="offsets" format="ascii" RangeMin="1" RangeMax="16">
          1 2 3 4 5 6
          7 8 9 10 11 12
          13 14 15 16
        </DataArray>
      </Verts>
      <Lines>
        <DataArray type="Int64" Name="connectivity" format="ascii" RangeMin="0" RangeMax="15">
        </DataArray>
        <DataArray type="Int64" Name="offsets" format="ascii" RangeMin="1" RangeMax="16">
        </DataArray>
      </Lines>
      <Strips>
        <DataArray type="Int64" Name="connectivity" format="ascii" RangeMin="0" RangeMax="15">
        </DataArray>
        <DataArray type="Int64" Name="offsets" format="ascii" RangeMin="1" RangeMax="16">
        </DataArray>
      </Strips>
      <Polys>
        <DataArray type="Int64" Name="connectivity" format="ascii" RangeMin="0" RangeMax="15">
        </DataArray>
        <DataArray type="Int64" Name="offsets" format="ascii" RangeMin="1" RangeMax="16">
        </DataArray>
      </Polys>
    </Piece>
  </PolyData>
</VTKFile>
